#LAMMPS data file generated on 2023-11-17 via gen_data.py, version 1 May 2020

14 atoms
1 atom types
13 bonds
1 bond types

0.0000000000000000e+00   1.0000000000000000e+02    xlo xhi
0.0000000000000000e+00   1.0000000000000000e+02    ylo yhi
0.0000000000000000e+00   1.0000000000000000e+02    zlo zhi

Masses

1  100.00000  # C

Atoms

1             1    1  0.00000  479.5048446265  500.9350816490  476.5922952159 0 0 0
2             1    1  0.00000  481.3083247372  500.0179259187  478.5278274054 0 0 0
3             1    1  0.00000  483.1261632646  499.7396504536  480.6398782698 0 0 0
4             1    1  0.00000  484.1185656633  501.3549512830  482.6997274657 0 0 0
5             1    1  0.00000  484.1814705391  500.2825276118  485.2865988282 0 0 0
6             1    1  0.00000  486.8454984487  501.1147931474  485.5133043090 0 0 0
7             1    1  0.00000  489.3409828895  499.9110682935  485.9145584453 0 0 0
8             1    1  0.00000  489.5792608308  501.8690075150  487.9020250809 0 0 0
9             1    1  0.00000  490.5031043027  500.9126524679  490.3666393029 0 0 0
10            1    1  0.00000  491.6413375087  503.0233830373  491.8121785214 0 0 0
11            1    1  0.00000  491.8320462022  502.6574657019  494.5814724202 0 0 0
12            1    1  0.00000  493.4254070581  504.2618404346  496.2324224194 0 0 0
13            1    1  0.00000  495.9873948653  504.6775071290  497.2826436700 0 0 0
14            1    1  0.00000  496.4263000685  505.0873436053  500.0175643792 0 0 0

Bonds

1  1 1 2
2  1 2 3
3  1 3 4
4  1 4 5
5  1 5 6
6  1 6 7
7  1 7 8
8  1 8 9
9  1 9 10
10 1 10 11
11 1 11 12
12 1 12 13
13 1 13 14
