#LAMMPS data file generated on 2023-11-17 via gen_data.py, version 1 May 2020

30 atoms
1 atom types
29 bonds
1 bond types

0.0000000000000000e+00   1.0000000000000000e+03    xlo xhi
0.0000000000000000e+00   1.0000000000000000e+03    ylo yhi
0.0000000000000000e+00   1.0000000000000000e+03    zlo zhi

Masses

1  100.00000  # C

Atoms

1             1    1  0.00000  479.5048446265  500.9350816490  476.5922952159 0 0 0
2             1    1  0.00000  481.3083247372  500.0179259187  478.5278274054 0 0 0
3             1    1  0.00000  483.1261632646  499.7396504536  480.6398782698 0 0 0
4             1    1  0.00000  484.1185656633  501.3549512830  482.6997274657 0 0 0
5             1    1  0.00000  484.1814705391  500.2825276118  485.2865988282 0 0 0
6             1    1  0.00000  486.8454984487  501.1147931474  485.5133043090 0 0 0
7             1    1  0.00000  489.3409828895  499.9110682935  485.9145584453 0 0 0
8             1    1  0.00000  489.5792608308  501.8690075150  487.9020250809 0 0 0
9             1    1  0.00000  490.5031043027  500.9126524679  490.3666393029 0 0 0
10            1    1  0.00000  491.6413375087  503.0233830373  491.8121785214 0 0 0
11            1    1  0.00000  491.8320462022  502.6574657019  494.5814724202 0 0 0
12            1    1  0.00000  493.4254070581  504.2618404346  496.2324224194 0 0 0
13            1    1  0.00000  495.9873948653  504.6775071290  497.2826436700 0 0 0
14            1    1  0.00000  496.4263000685  505.0873436053  500.0175643792 0 0 0
15            1    1  0.00000  496.4140369999  504.2333849596  502.6839644333 0 0 0
16            1    1  0.00000  498.4128242157  504.2771667664  504.6440360696 0 0 0
17            1    1  0.00000  500.6589999391  502.8216052913  505.4678354456 0 0 0
18            1    1  0.00000  503.4550577346  502.6707666170  505.5280890666 0 0 0
19            1    1  0.00000  504.5965845906  500.1694113534  506.0567016679 0 0 0
20            1    1  0.00000  507.3432726567  500.3179802472  506.5825846888 0 0 0
21            1    1  0.00000  508.7002436010  497.8789085712  506.8083217389 0 0 0
22            1    1  0.00000  511.3523025494  498.5899520261  507.3576290659 0 0 0
23            1    1  0.00000  511.3338943500  498.0138848212  510.0977826589 0 0 0
24            1    1  0.00000  514.1238957389  497.8325375677  510.2302342476 0 0 0
25            1    1  0.00000  515.6163826769  497.5931342461  512.5871877451 0 0 0
26            1    1  0.00000  515.9245194791  496.0632353276  514.9125047150 0 0 0
27            1    1  0.00000  515.8581557937  493.5193032375  516.0791624978 0 0 0
28            1    1  0.00000  517.2428364573  493.5970875233  518.5118248386 0 0 0
29            1    1  0.00000  519.8368230568  494.4196063430  519.1709585984 0 0 0
30            1    1  0.00000  521.3094691550  492.1568368533  519.9120467888 0 0 0

Bonds

1  1 3 4
2  1 26 27
3  1 12 13
4  1 21 22
5  1 22 23
6  1 8 9
7  1 17 18
8  1 27 28
9  1 25 26
10 1 13 14
11 1 18 19
12 1 4 5
13 1 5 6
14 1 14 15
15 1 23 24
16 1 9 10
17 1 1 2
18 1 10 11
19 1 19 20
20 1 28 29
21 1 6 7
22 1 15 16
23 1 24 25
24 1 20 21
25 1 29 30
26 1 2 3
27 1 11 12
28 1 7 8
29 1 16 17
